% Model:              GeometryStress_SFC.mph
% Version:            COMSOL 6.2.0.290
% Date:               Jun 13 2024, 09:47
% Table:              Sphere - Sphere
% P0_Juice               Time (s)                 Variable dépendante P (1) Variable dépendante P (1)
0.5                      0                        2.078778531270345E-6      2.078778531270345E-6
0.5                      1                        0.07086445294134155       0.07086445294134155
0.5                      2                        0.14872342500403912       0.14872342500403912
0.5                      3                        0.22196995210142384       0.22196995210142384
0.5                      4                        0.28676644241884536       0.28676644241884536
0.5                      5                        0.3418899417253307        0.3418899417253307
0.5                      6                        0.38800813426501046       0.38800813426501046
0.5                      7                        0.425512477320547         0.425512477320547
0.5                      8                        0.45536644374398083       0.45536644374398083
0.5                      9                        0.47916961699815974       0.47916961699815974
0.5                      10                       0.49805794553289734       0.49805794553289734
0.5                      11                       0.5130185386300171        0.5130185386300171
0.5                      12                       0.5248902757879974        0.5248902757879974
0.5                      13                       0.5342770017433403        0.5342770017433403
0.5                      14                       0.541735588498522         0.541735588498522
0.5                      15                       0.5476742663582013        0.5476742663582013
0.5                      16                       0.5523724458438924        0.5523724458438924
0.5                      17                       0.5560485375900991        0.5560485375900991
0.5                      18                       0.5589304825717016        0.5589304825717016
0.5                      19                       0.5611441483676936        0.5611441483676936
0.5                      20                       0.5628525367797469        0.5628525367797469
200                      0                        4.698441486559601E-5      4.698441486559601E-5
200                      1                        13.398228112209337        13.398228112209337
200                      2                        34.36098208638705         34.36098208638705
200                      3                        56.20155762478537         56.20155762478537
200                      4                        76.6529149840797          76.6529149840797
200                      5                        94.56678755274349         94.56678755274349
200                      6                        109.7345182065109         109.7345182065109
200                      7                        122.32053126598353        122.32053126598353
200                      8                        132.6272513362124         132.6272513362124
200                      9                        140.98478004735028        140.98478004735028
200                      10                       147.69827015088003        147.69827015088003
200                      11                       153.05186102666005        153.05186102666005
200                      12                       157.311399161108          157.311399161108
200                      13                       160.71311614106583        160.71311614106583
200                      14                       163.40328695791942        163.40328695791942
200                      15                       165.521048341049          165.521048341049
200                      16                       167.1524956115715         167.1524956115715
200                      17                       168.42523679836307        168.42523679836307
200                      18                       169.38988572117793        169.38988572117793
200                      19                       170.1458818242661         170.1458818242661
200                      20                       170.71428073985652        170.71428073985652
